{
  "cid": 679,
  "name": "methylsulfinylmethane",
  "formula": "C2H6OS",
  "weight": "78.14",
  "smiles": "CS(=O)C",
  "image_url": "https://pubchem.ncbi.nlm.nih.gov/image/imgsrv.fcgi?cid=679&t=l",
  "pubchem_url": "https://pubchem.ncbi.nlm.nih.gov/compound/679",
  "boiling_point": "372 \u00b0F at 760 mmHg (NTP, 1992)",
  "melting_point": "65.3 \u00b0F (NTP, 1992)",
  "boiling_point_c": "188.9 \u00b0C",
  "melting_point_c": "18.5 \u00b0C",
  "safety_icons": {
    "ghs_icons": [
      "https://pubchem.ncbi.nlm.nih.gov/images/ghs/GHS07.svg",
      "https://pubchem.ncbi.nlm.nih.gov/images/ghs/GHS08.svg"
    ],
    "nfpa_image": "https://pubchem.ncbi.nlm.nih.gov/image/nfpa.cgi?code=220"
  },
  "cas": "67-68-5"
}