{
  "cid": 702,
  "name": "ethanol",
  "formula": "C2H6O",
  "weight": "46.07",
  "smiles": "CCO",
  "image_url": "https://pubchem.ncbi.nlm.nih.gov/image/imgsrv.fcgi?cid=702&t=l",
  "pubchem_url": "https://pubchem.ncbi.nlm.nih.gov/compound/702",
  "boiling_point": "173.3 \u00b0F at 760 mmHg (NTP, 1992)",
  "melting_point": "-173.4 \u00b0F (NTP, 1992)",
  "boiling_point_c": "78.5 \u00b0C",
  "melting_point_c": "-114.1 \u00b0C",
  "safety_icons": {
    "ghs_icons": [
      "https://pubchem.ncbi.nlm.nih.gov/images/ghs/GHS02.svg",
      "https://pubchem.ncbi.nlm.nih.gov/images/ghs/GHS07.svg",
      "https://pubchem.ncbi.nlm.nih.gov/images/ghs/GHS08.svg"
    ],
    "nfpa_image": "https://pubchem.ncbi.nlm.nih.gov/image/nfpa.cgi?code=230"
  },
  "cas": "64-17-5"
}