{
  "cid": 6212,
  "name": "chloroform",
  "formula": "CHCl3",
  "weight": "119.37",
  "smiles": "C(Cl)(Cl)Cl",
  "image_url": "https://pubchem.ncbi.nlm.nih.gov/image/imgsrv.fcgi?cid=6212&t=l",
  "pubchem_url": "https://pubchem.ncbi.nlm.nih.gov/compound/6212",
  "boiling_point": "143 \u00b0F at 760 mmHg (EPA, 1998)",
  "melting_point": "-82.3 \u00b0F (EPA, 1998)",
  "boiling_point_c": "61.7 \u00b0C",
  "melting_point_c": "-63.5 \u00b0C",
  "safety_icons": {
    "ghs_icons": [
      "https://pubchem.ncbi.nlm.nih.gov/images/ghs/GHS05.svg",
      "https://pubchem.ncbi.nlm.nih.gov/images/ghs/GHS06.svg",
      "https://pubchem.ncbi.nlm.nih.gov/images/ghs/GHS07.svg",
      "https://pubchem.ncbi.nlm.nih.gov/images/ghs/GHS08.svg",
      "https://pubchem.ncbi.nlm.nih.gov/images/ghs/GHS09.svg"
    ],
    "nfpa_image": "https://pubchem.ncbi.nlm.nih.gov/image/nfpa.cgi?code=200"
  },
  "cas": "67-66-3"
}