{
  "cid": 8078,
  "name": "cyclohexane",
  "formula": "C6H12",
  "weight": "84.16",
  "smiles": "C1CCCCC1",
  "image_url": "https://pubchem.ncbi.nlm.nih.gov/image/imgsrv.fcgi?cid=8078&t=l",
  "pubchem_url": "https://pubchem.ncbi.nlm.nih.gov/compound/8078",
  "boiling_point": "177.3 \u00b0F at 760 mmHg (NTP, 1992)",
  "melting_point": "43.7 \u00b0F (NTP, 1992)",
  "boiling_point_c": "80.7 \u00b0C",
  "melting_point_c": "6.5 \u00b0C",
  "safety_icons": {
    "ghs_icons": [
      "https://pubchem.ncbi.nlm.nih.gov/images/ghs/GHS02.svg",
      "https://pubchem.ncbi.nlm.nih.gov/images/ghs/GHS07.svg",
      "https://pubchem.ncbi.nlm.nih.gov/images/ghs/GHS08.svg",
      "https://pubchem.ncbi.nlm.nih.gov/images/ghs/GHS09.svg"
    ],
    "nfpa_image": "https://pubchem.ncbi.nlm.nih.gov/image/nfpa.cgi?code=130"
  },
  "cas": "110-82-7"
}