{
  "cid": 15078,
  "name": "1H-1,2,4-triazole-3,5-diamine",
  "formula": "C2H5N5",
  "weight": "99.10",
  "smiles": "C1(=NC(=NN1)N)N",
  "image_url": "https://pubchem.ncbi.nlm.nih.gov/image/imgsrv.fcgi?cid=15078&t=l",
  "pubchem_url": "https://pubchem.ncbi.nlm.nih.gov/compound/15078",
  "boiling_point": null,
  "melting_point": "399 to 403 \u00b0F (Decomposes) (NTP, 1992)",
  "boiling_point_c": null,
  "melting_point_c": "206.1 \u00b0C",
  "safety_icons": {
    "ghs_icons": [
      "https://pubchem.ncbi.nlm.nih.gov/images/ghs/GHS07.svg"
    ],
    "nfpa_image": null
  },
  "cas": "1455-77-2"
}