{
  "cid": 6228,
  "name": "N,N-dimethylformamide",
  "formula": "C3H7NO",
  "weight": "73.09",
  "smiles": "CN(C)C=O",
  "image_url": "https://pubchem.ncbi.nlm.nih.gov/image/imgsrv.fcgi?cid=6228&t=l",
  "pubchem_url": "https://pubchem.ncbi.nlm.nih.gov/compound/6228",
  "boiling_point": "300 to 313 \u00b0F at 760 mmHg (NTP, 1992)",
  "melting_point": "-78 \u00b0F (NTP, 1992)",
  "boiling_point_c": "156.1 \u00b0C",
  "melting_point_c": "-61.1 \u00b0C",
  "safety_icons": {
    "ghs_icons": [
      "https://pubchem.ncbi.nlm.nih.gov/images/ghs/GHS02.svg",
      "https://pubchem.ncbi.nlm.nih.gov/images/ghs/GHS05.svg",
      "https://pubchem.ncbi.nlm.nih.gov/images/ghs/GHS06.svg",
      "https://pubchem.ncbi.nlm.nih.gov/images/ghs/GHS07.svg",
      "https://pubchem.ncbi.nlm.nih.gov/images/ghs/GHS08.svg"
    ],
    "nfpa_image": "https://pubchem.ncbi.nlm.nih.gov/image/nfpa.cgi?code=220"
  },
  "cas": "68-12-2"
}