{
  "cid": 2955,
  "name": "4-(4-aminophenyl)sulfonylaniline",
  "formula": "C12H12N2O2S",
  "weight": "248.30",
  "smiles": "C1=CC(=CC=C1N)S(=O)(=O)C2=CC=C(C=C2)N",
  "image_url": "https://pubchem.ncbi.nlm.nih.gov/image/imgsrv.fcgi?cid=2955&t=l",
  "pubchem_url": "https://pubchem.ncbi.nlm.nih.gov/compound/2955",
  "boiling_point": null,
  "melting_point": "347 to 349 \u00b0F (NTP, 1992)",
  "boiling_point_c": null,
  "melting_point_c": "176.1 \u00b0C",
  "safety_icons": {
    "ghs_icons": [
      "https://pubchem.ncbi.nlm.nih.gov/images/ghs/GHS07.svg",
      "https://pubchem.ncbi.nlm.nih.gov/images/ghs/GHS08.svg",
      "https://pubchem.ncbi.nlm.nih.gov/images/ghs/GHS09.svg"
    ],
    "nfpa_image": null
  },
  "cas": "80-08-0"
}