{
  "cid": 8028,
  "name": "oxolane",
  "formula": "C4H8O",
  "weight": "72.11",
  "smiles": "C1CCOC1",
  "image_url": "https://pubchem.ncbi.nlm.nih.gov/image/imgsrv.fcgi?cid=8028&t=l",
  "pubchem_url": "https://pubchem.ncbi.nlm.nih.gov/compound/8028",
  "boiling_point": "151 \u00b0F at 760 mmHg (NTP, 1992)",
  "melting_point": "-163.3 \u00b0F (NTP, 1992)",
  "boiling_point_c": "66.1 \u00b0C",
  "melting_point_c": "-108.5 \u00b0C",
  "safety_icons": {
    "ghs_icons": [
      "https://pubchem.ncbi.nlm.nih.gov/images/ghs/GHS02.svg",
      "https://pubchem.ncbi.nlm.nih.gov/images/ghs/GHS07.svg",
      "https://pubchem.ncbi.nlm.nih.gov/images/ghs/GHS08.svg"
    ],
    "nfpa_image": "https://pubchem.ncbi.nlm.nih.gov/image/nfpa.cgi?code=231"
  },
  "cas": "109-99-9"
}