{
  "cid": 180,
  "name": "propan-2-one",
  "formula": "C3H6O",
  "weight": "58.08",
  "smiles": "CC(=O)C",
  "image_url": "https://pubchem.ncbi.nlm.nih.gov/image/imgsrv.fcgi?cid=180&t=l",
  "pubchem_url": "https://pubchem.ncbi.nlm.nih.gov/compound/180",
  "boiling_point": "133 \u00b0F at 760 mmHg (NTP, 1992)",
  "melting_point": "-137 \u00b0F (NTP, 1992)",
  "boiling_point_c": "56.1 \u00b0C",
  "melting_point_c": "-93.9 \u00b0C",
  "safety_icons": {
    "ghs_icons": [
      "https://pubchem.ncbi.nlm.nih.gov/images/ghs/GHS02.svg",
      "https://pubchem.ncbi.nlm.nih.gov/images/ghs/GHS07.svg",
      "https://pubchem.ncbi.nlm.nih.gov/images/ghs/GHS08.svg"
    ],
    "nfpa_image": "https://pubchem.ncbi.nlm.nih.gov/image/nfpa.cgi?code=130"
  },
  "cas": "67-64-1"
}