{
  "cid": 9257,
  "name": "1H-1,2,4-triazole",
  "formula": "C2H3N3",
  "weight": "69.07",
  "smiles": "C1=NC=NN1",
  "image_url": "https://pubchem.ncbi.nlm.nih.gov/image/imgsrv.fcgi?cid=9257&t=l",
  "pubchem_url": "https://pubchem.ncbi.nlm.nih.gov/compound/9257",
  "boiling_point": "260 \u00b0C (decomposes)",
  "melting_point": "120-121 \u00b0C",
  "boiling_point_c": "260 \u00b0C",
  "melting_point_c": "-121 \u00b0C",
  "safety_icons": {
    "ghs_icons": [
      "https://pubchem.ncbi.nlm.nih.gov/images/ghs/GHS07.svg",
      "https://pubchem.ncbi.nlm.nih.gov/images/ghs/GHS08.svg"
    ],
    "nfpa_image": null
  },
  "cas": "288-88-0"
}