{
  "cid": 31275,
  "name": "1,4-dioxane",
  "formula": "C4H8O2",
  "weight": "88.11",
  "smiles": "C1COCCO1",
  "image_url": "https://pubchem.ncbi.nlm.nih.gov/image/imgsrv.fcgi?cid=31275&t=l",
  "pubchem_url": "https://pubchem.ncbi.nlm.nih.gov/compound/31275",
  "boiling_point": "214 \u00b0F at 760 mmHg (NTP, 1992)",
  "melting_point": "53.2 \u00b0F (NTP, 1992)",
  "boiling_point_c": "101.1 \u00b0C",
  "melting_point_c": "11.8 \u00b0C",
  "safety_icons": {
    "ghs_icons": [
      "https://pubchem.ncbi.nlm.nih.gov/images/ghs/GHS02.svg",
      "https://pubchem.ncbi.nlm.nih.gov/images/ghs/GHS06.svg",
      "https://pubchem.ncbi.nlm.nih.gov/images/ghs/GHS07.svg",
      "https://pubchem.ncbi.nlm.nih.gov/images/ghs/GHS08.svg"
    ],
    "nfpa_image": "https://pubchem.ncbi.nlm.nih.gov/image/nfpa.cgi?code=231"
  },
  "cas": "123-91-1"
}